{
    "Enthalpy units": "kJ/mol",
    "compounds": [
        {
            "name": "Methane",
            "formula": "CH4",
            "0K": {
                "Sensible enthalpy": "-10.024",
                "Heat of formation": "-66.911",
                "logKf": "inf"
            },
            "": {
                "Sensible enthalpy": "",
                "Heat of formation": "",
                "logKf": ""
            },
        }
    ]
}